<?xml version="1.0" encoding="UTF-8"?>

<!-- generated on 2021-09-17 02:30:22 by Eclipse SUMO sumo Version 1.9.2
<configuration xmlns:xsi="http://www.w3.org/2001/XMLSchema-instance" xsi:noNamespaceSchemaLocation="http://sumo.dlr.de/xsd/sumoConfiguration.xsd">

    <input>
        <net-file value="swansea.net.xml"/>
        <route-files value="emergency_vehicle.xml,traffic_routes.xml"/>
        <additional-files value="swansea.poly.xml,calibrator.xml"/>
    </input>

    <output>
        <fcd-output value="fcd_output.xml"/>
        <tripinfo-output value="tripinfo_output.xml"/>
        <statistic-output value="statistic_output.xml"/>
    </output>

    <time>
        <begin value="0"/>
        <end value="3600"/>
    </time>

    <processing>
        <ignore-route-errors value="true"/>
    </processing>

    <report>
        <verbose value="true"/>
        <duration-log.statistics value="true"/>
        <no-step-log value="true"/>
    </report>

    <bluelight_device>
        <device.bluelight.explicit value="ev_trip"/>
    </bluelight_device>

    <fcd_device>
        <device.fcd.explicit value="ev_trip"/>
    </fcd_device>

    <random_number>
        <seed value="202"/>
    </random_number>

    <gui_only>
        <gui-settings-file value="simulation_view.xml"/>
    </gui_only>

</configuration>
-->

<fcd-export xmlns:xsi="http://www.w3.org/2001/XMLSchema-instance" xsi:noNamespaceSchemaLocation="http://sumo.dlr.de/xsd/fcd_file.xsd">
    <timestep time="0.00"/>
    <timestep time="1.00"/>
    <timestep time="2.00"/>
    <timestep time="3.00"/>
    <timestep time="4.00"/>
    <timestep time="5.00"/>
    <timestep time="6.00"/>
    <timestep time="7.00"/>
    <timestep time="8.00"/>
    <timestep time="9.00"/>
    <timestep time="10.00"/>
    <timestep time="11.00"/>
    <timestep time="12.00"/>
    <timestep time="13.00"/>
    <timestep time="14.00"/>
    <timestep time="15.00"/>
    <timestep time="16.00"/>
    <timestep time="17.00"/>
    <timestep time="18.00"/>
    <timestep time="19.00"/>
    <timestep time="20.00"/>
    <timestep time="21.00"/>
    <timestep time="22.00"/>
    <timestep time="23.00"/>
    <timestep time="24.00"/>
    <timestep time="25.00"/>
    <timestep time="26.00"/>
    <timestep time="27.00"/>
    <timestep time="28.00"/>
    <timestep time="29.00"/>
    <timestep time="30.00"/>
    <timestep time="31.00"/>
    <timestep time="32.00"/>
    <timestep time="33.00"/>
    <timestep time="34.00"/>
    <timestep time="35.00"/>
    <timestep time="36.00"/>
    <timestep time="37.00"/>
    <timestep time="38.00"/>
    <timestep time="39.00"/>
    <timestep time="40.00"/>
    <timestep time="41.00"/>
    <timestep time="42.00"/>
    <timestep time="43.00"/>
    <timestep time="44.00"/>
    <timestep time="45.00"/>
    <timestep time="46.00"/>
    <timestep time="47.00"/>
    <timestep time="48.00"/>
    <timestep time="49.00"/>
    <timestep time="50.00"/>
    <timestep time="51.00"/>
    <timestep time="52.00"/>
    <timestep time="53.00"/>
    <timestep time="54.00"/>
    <timestep time="55.00"/>
    <timestep time="56.00"/>
    <timestep time="57.00"/>
    <timestep time="58.00"/>
    <timestep time="59.00"/>
    <timestep time="60.00"/>
    <timestep time="61.00"/>
    <timestep time="62.00"/>
    <timestep time="63.00"/>
    <timestep time="64.00"/>
    <timestep time="65.00"/>
    <timestep time="66.00"/>
    <timestep time="67.00"/>
    <timestep time="68.00"/>
    <timestep time="69.00"/>
    <timestep time="70.00"/>
    <timestep time="71.00"/>
    <timestep time="72.00"/>
    <timestep time="73.00"/>
    <timestep time="74.00"/>
    <timestep time="75.00"/>
    <timestep time="76.00"/>
    <timestep time="77.00"/>
    <timestep time="78.00"/>
    <timestep time="79.00"/>
    <timestep time="80.00"/>
    <timestep time="81.00"/>
    <timestep time="82.00"/>
    <timestep time="83.00"/>
    <timestep time="84.00"/>
    <timestep time="85.00"/>
    <timestep time="86.00"/>
    <timestep time="87.00"/>
    <timestep time="88.00"/>
    <timestep time="89.00"/>
    <timestep time="90.00"/>
    <timestep time="91.00"/>
    <timestep time="92.00"/>
    <timestep time="93.00"/>
    <timestep time="94.00"/>
    <timestep time="95.00"/>
    <timestep time="96.00"/>
    <timestep time="97.00"/>
    <timestep time="98.00"/>
    <timestep time="99.00"/>
    <timestep time="100.00"/>
    <timestep time="101.00"/>
    <timestep time="102.00"/>
    <timestep time="103.00"/>
    <timestep time="104.00"/>
    <timestep time="105.00"/>
    <timestep time="106.00"/>
    <timestep time="107.00"/>
    <timestep time="108.00"/>
    <timestep time="109.00"/>
    <timestep time="110.00"/>
    <timestep time="111.00"/>
    <timestep time="112.00"/>
    <timestep time="113.00"/>
    <timestep time="114.00"/>
    <timestep time="115.00"/>
    <timestep time="116.00"/>
    <timestep time="117.00"/>
    <timestep time="118.00"/>
    <timestep time="119.00"/>
    <timestep time="120.00"/>
    <timestep time="121.00"/>
    <timestep time="122.00"/>
    <timestep time="123.00"/>
    <timestep time="124.00"/>
    <timestep time="125.00"/>
    <timestep time="126.00"/>
    <timestep time="127.00"/>
    <timestep time="128.00"/>
    <timestep time="129.00"/>
    <timestep time="130.00"/>
    <timestep time="131.00"/>
    <timestep time="132.00"/>
    <timestep time="133.00"/>
    <timestep time="134.00"/>
    <timestep time="135.00"/>
    <timestep time="136.00"/>
    <timestep time="137.00"/>
    <timestep time="138.00"/>
    <timestep time="139.00"/>
    <timestep time="140.00"/>
    <timestep time="141.00"/>
    <timestep time="142.00"/>
    <timestep time="143.00"/>
    <timestep time="144.00"/>
    <timestep time="145.00"/>
    <timestep time="146.00"/>
    <timestep time="147.00"/>
    <timestep time="148.00"/>
    <timestep time="149.00"/>
    <timestep time="150.00"/>
    <timestep time="151.00"/>
    <timestep time="152.00"/>
    <timestep time="153.00"/>
    <timestep time="154.00"/>
    <timestep time="155.00"/>
    <timestep time="156.00"/>
    <timestep time="157.00"/>
    <timestep time="158.00"/>
    <timestep time="159.00"/>
    <timestep time="160.00"/>
    <timestep time="161.00"/>
    <timestep time="162.00"/>
    <timestep time="163.00"/>
    <timestep time="164.00"/>
    <timestep time="165.00"/>
    <timestep time="166.00"/>
    <timestep time="167.00"/>
    <timestep time="168.00"/>
    <timestep time="169.00"/>
    <timestep time="170.00"/>
    <timestep time="171.00"/>
    <timestep time="172.00"/>
    <timestep time="173.00"/>
    <timestep time="174.00"/>
    <timestep time="175.00"/>
    <timestep time="176.00"/>
    <timestep time="177.00"/>
    <timestep time="178.00"/>
    <timestep time="179.00"/>
    <timestep time="180.00"/>
    <timestep time="181.00"/>
    <timestep time="182.00"/>
    <timestep time="183.00"/>
    <timestep time="184.00"/>
    <timestep time="185.00"/>
    <timestep time="186.00"/>
    <timestep time="187.00"/>
    <timestep time="188.00"/>
    <timestep time="189.00"/>
    <timestep time="190.00"/>
    <timestep time="191.00"/>
    <timestep time="192.00"/>
    <timestep time="193.00"/>
    <timestep time="194.00"/>
    <timestep time="195.00"/>
    <timestep time="196.00"/>
    <timestep time="197.00"/>
    <timestep time="198.00"/>
    <timestep time="199.00"/>
    <timestep time="200.00"/>
    <timestep time="201.00"/>
    <timestep time="202.00"/>
    <timestep time="203.00"/>
    <timestep time="204.00"/>
    <timestep time="205.00"/>
    <timestep time="206.00"/>
    <timestep time="207.00"/>
    <timestep time="208.00"/>
    <timestep time="209.00"/>
    <timestep time="210.00"/>
    <timestep time="211.00"/>
    <timestep time="212.00"/>
    <timestep time="213.00"/>
    <timestep time="214.00"/>
    <timestep time="215.00"/>
    <timestep time="216.00"/>
    <timestep time="217.00"/>
    <timestep time="218.00"/>
    <timestep time="219.00"/>
    <timestep time="220.00"/>
    <timestep time="221.00"/>
    <timestep time="222.00"/>
    <timestep time="223.00"/>
    <timestep time="224.00"/>
    <timestep time="225.00"/>
    <timestep time="226.00"/>
    <timestep time="227.00"/>
    <timestep time="228.00"/>
    <timestep time="229.00"/>
    <timestep time="230.00"/>
    <timestep time="231.00"/>
    <timestep time="232.00"/>
    <timestep time="233.00"/>
    <timestep time="234.00"/>
    <timestep time="235.00"/>
    <timestep time="236.00"/>
    <timestep time="237.00"/>
    <timestep time="238.00"/>
    <timestep time="239.00"/>
    <timestep time="240.00"/>
    <timestep time="241.00"/>
    <timestep time="242.00"/>
    <timestep time="243.00"/>
    <timestep time="244.00"/>
    <timestep time="245.00"/>
    <timestep time="246.00"/>
    <timestep time="247.00"/>
    <timestep time="248.00"/>
    <timestep time="249.00"/>
    <timestep time="250.00"/>
    <timestep time="251.00"/>
    <timestep time="252.00"/>
    <timestep time="253.00"/>
    <timestep time="254.00"/>
    <timestep time="255.00"/>
    <timestep time="256.00"/>
    <timestep time="257.00"/>
    <timestep time="258.00"/>
    <timestep time="259.00"/>
    <timestep time="260.00"/>
    <timestep time="261.00"/>
    <timestep time="262.00"/>
    <timestep time="263.00"/>
    <timestep time="264.00"/>
    <timestep time="265.00"/>
    <timestep time="266.00"/>
    <timestep time="267.00"/>
    <timestep time="268.00"/>
    <timestep time="269.00"/>
    <timestep time="270.00"/>
    <timestep time="271.00"/>
    <timestep time="272.00"/>
    <timestep time="273.00"/>
    <timestep time="274.00"/>
    <timestep time="275.00"/>
    <timestep time="276.00"/>
    <timestep time="277.00"/>
    <timestep time="278.00"/>
    <timestep time="279.00"/>
    <timestep time="280.00"/>
    <timestep time="281.00"/>
    <timestep time="282.00"/>
    <timestep time="283.00"/>
    <timestep time="284.00"/>
    <timestep time="285.00"/>
    <timestep time="286.00"/>
    <timestep time="287.00"/>
    <timestep time="288.00"/>
    <timestep time="289.00"/>
    <timestep time="290.00"/>
    <timestep time="291.00"/>
    <timestep time="292.00"/>
    <timestep time="293.00"/>
    <timestep time="294.00"/>
    <timestep time="295.00"/>
    <timestep time="296.00"/>
    <timestep time="297.00"/>
    <timestep time="298.00"/>
    <timestep time="299.00"/>
    <timestep time="300.00"/>
    <timestep time="301.00"/>
    <timestep time="302.00"/>
    <timestep time="303.00"/>
    <timestep time="304.00"/>
    <timestep time="305.00"/>
    <timestep time="306.00"/>
    <timestep time="307.00"/>
    <timestep time="308.00"/>
    <timestep time="309.00"/>
    <timestep time="310.00"/>
    <timestep time="311.00"/>
    <timestep time="312.00"/>
    <timestep time="313.00"/>
    <timestep time="314.00"/>
    <timestep time="315.00"/>
    <timestep time="316.00"/>
    <timestep time="317.00"/>
    <timestep time="318.00"/>
    <timestep time="319.00"/>
    <timestep time="320.00"/>
    <timestep time="321.00"/>
    <timestep time="322.00"/>
    <timestep time="323.00"/>
    <timestep time="324.00"/>
    <timestep time="325.00"/>
    <timestep time="326.00"/>
    <timestep time="327.00"/>
    <timestep time="328.00"/>
    <timestep time="329.00"/>
    <timestep time="330.00"/>
    <timestep time="331.00"/>
    <timestep time="332.00"/>
    <timestep time="333.00"/>
    <timestep time="334.00"/>
    <timestep time="335.00"/>
    <timestep time="336.00"/>
    <timestep time="337.00"/>
    <timestep time="338.00"/>
    <timestep time="339.00"/>
    <timestep time="340.00"/>
    <timestep time="341.00"/>
    <timestep time="342.00"/>
    <timestep time="343.00"/>
    <timestep time="344.00"/>
    <timestep time="345.00"/>
    <timestep time="346.00"/>
    <timestep time="347.00"/>
    <timestep time="348.00"/>
    <timestep time="349.00"/>
    <timestep time="350.00"/>
    <timestep time="351.00"/>
    <timestep time="352.00"/>
    <timestep time="353.00"/>
    <timestep time="354.00"/>
    <timestep time="355.00"/>
    <timestep time="356.00"/>
    <timestep time="357.00"/>
    <timestep time="358.00"/>
    <timestep time="359.00"/>
    <timestep time="360.00"/>
    <timestep time="361.00"/>
    <timestep time="362.00"/>
    <timestep time="363.00"/>
    <timestep time="364.00"/>
    <timestep time="365.00"/>
    <timestep time="366.00"/>
    <timestep time="367.00"/>
    <timestep time="368.00"/>
    <timestep time="369.00"/>
    <timestep time="370.00"/>
    <timestep time="371.00"/>
    <timestep time="372.00"/>
    <timestep time="373.00"/>
    <timestep time="374.00"/>
    <timestep time="375.00"/>
    <timestep time="376.00"/>
    <timestep time="377.00"/>
    <timestep time="378.00"/>
    <timestep time="379.00"/>
    <timestep time="380.00"/>
    <timestep time="381.00"/>
    <timestep time="382.00"/>
    <timestep time="383.00"/>
    <timestep time="384.00"/>
    <timestep time="385.00"/>
    <timestep time="386.00"/>
    <timestep time="387.00"/>
    <timestep time="388.00"/>
    <timestep time="389.00"/>
    <timestep time="390.00"/>
    <timestep time="391.00"/>
    <timestep time="392.00"/>
    <timestep time="393.00"/>
    <timestep time="394.00"/>
    <timestep time="395.00"/>
    <timestep time="396.00"/>
    <timestep time="397.00"/>
    <timestep time="398.00"/>
    <timestep time="399.00"/>
    <timestep time="400.00"/>
    <timestep time="401.00"/>
    <timestep time="402.00"/>
    <timestep time="403.00"/>
    <timestep time="404.00"/>
    <timestep time="405.00"/>
    <timestep time="406.00"/>
    <timestep time="407.00"/>
    <timestep time="408.00"/>
    <timestep time="409.00"/>
    <timestep time="410.00"/>
    <timestep time="411.00"/>
    <timestep time="412.00"/>
    <timestep time="413.00"/>
    <timestep time="414.00"/>
    <timestep time="415.00"/>
    <timestep time="416.00"/>
    <timestep time="417.00"/>
    <timestep time="418.00"/>
    <timestep time="419.00"/>
    <timestep time="420.00"/>
    <timestep time="421.00"/>
    <timestep time="422.00"/>
    <timestep time="423.00"/>
    <timestep time="424.00"/>
    <timestep time="425.00"/>
    <timestep time="426.00"/>
    <timestep time="427.00"/>
    <timestep time="428.00"/>
    <timestep time="429.00"/>
    <timestep time="430.00"/>
    <timestep time="431.00"/>
    <timestep time="432.00"/>
    <timestep time="433.00"/>
    <timestep time="434.00"/>
    <timestep time="435.00"/>
    <timestep time="436.00"/>
    <timestep time="437.00"/>
    <timestep time="438.00"/>
    <timestep time="439.00"/>
    <timestep time="440.00"/>
    <timestep time="441.00"/>
    <timestep time="442.00"/>
    <timestep time="443.00"/>
    <timestep time="444.00"/>
    <timestep time="445.00"/>
    <timestep time="446.00"/>
    <timestep time="447.00"/>
    <timestep time="448.00"/>
    <timestep time="449.00"/>
    <timestep time="450.00"/>
    <timestep time="451.00"/>
    <timestep time="452.00"/>
    <timestep time="453.00"/>
    <timestep time="454.00"/>
    <timestep time="455.00"/>
    <timestep time="456.00"/>
    <timestep time="457.00"/>
    <timestep time="458.00"/>
    <timestep time="459.00"/>
    <timestep time="460.00"/>
    <timestep time="461.00"/>
    <timestep time="462.00"/>
    <timestep time="463.00"/>
    <timestep time="464.00"/>
    <timestep time="465.00"/>
    <timestep time="466.00"/>
    <timestep time="467.00"/>
    <timestep time="468.00"/>
    <timestep time="469.00"/>
    <timestep time="470.00"/>
    <timestep time="471.00"/>
    <timestep time="472.00"/>
    <timestep time="473.00"/>
    <timestep time="474.00"/>
    <timestep time="475.00"/>
    <timestep time="476.00"/>
    <timestep time="477.00"/>
    <timestep time="478.00"/>
    <timestep time="479.00"/>
    <timestep time="480.00"/>
    <timestep time="481.00"/>
    <timestep time="482.00"/>
    <timestep time="483.00"/>
    <timestep time="484.00"/>
    <timestep time="485.00"/>
    <timestep time="486.00"/>
    <timestep time="487.00"/>
    <timestep time="488.00"/>
    <timestep time="489.00"/>
    <timestep time="490.00"/>
    <timestep time="491.00"/>
    <timestep time="492.00"/>
    <timestep time="493.00"/>
    <timestep time="494.00"/>
    <timestep time="495.00"/>
    <timestep time="496.00"/>
    <timestep time="497.00"/>
    <timestep time="498.00"/>
    <timestep time="499.00"/>
    <timestep time="500.00"/>
    <timestep time="501.00"/>
    <timestep time="502.00"/>
    <timestep time="503.00"/>
    <timestep time="504.00"/>
    <timestep time="505.00"/>
    <timestep time="506.00"/>
    <timestep time="507.00"/>
    <timestep time="508.00"/>
    <timestep time="509.00"/>
    <timestep time="510.00"/>
    <timestep time="511.00"/>
    <timestep time="512.00"/>
    <timestep time="513.00"/>
    <timestep time="514.00"/>
    <timestep time="515.00"/>
    <timestep time="516.00"/>
    <timestep time="517.00"/>
    <timestep time="518.00"/>
    <timestep time="519.00"/>
    <timestep time="520.00"/>
    <timestep time="521.00"/>
    <timestep time="522.00"/>
    <timestep time="523.00"/>
    <timestep time="524.00"/>
    <timestep time="525.00"/>
    <timestep time="526.00"/>
    <timestep time="527.00"/>
    <timestep time="528.00"/>
    <timestep time="529.00"/>
    <timestep time="530.00"/>
    <timestep time="531.00"/>
    <timestep time="532.00"/>
    <timestep time="533.00"/>
    <timestep time="534.00"/>
    <timestep time="535.00"/>
    <timestep time="536.00"/>
    <timestep time="537.00"/>
    <timestep time="538.00"/>
    <timestep time="539.00"/>
    <timestep time="540.00"/>
    <timestep time="541.00"/>
    <timestep time="542.00"/>
    <timestep time="543.00"/>
    <timestep time="544.00"/>
    <timestep time="545.00"/>
    <timestep time="546.00"/>
    <timestep time="547.00"/>
    <timestep time="548.00"/>
    <timestep time="549.00"/>
    <timestep time="550.00"/>
    <timestep time="551.00"/>
    <timestep time="552.00"/>
    <timestep time="553.00"/>
    <timestep time="554.00"/>
    <timestep time="555.00"/>
    <timestep time="556.00"/>
    <timestep time="557.00"/>
    <timestep time="558.00"/>
    <timestep time="559.00"/>
    <timestep time="560.00"/>
    <timestep time="561.00"/>
    <timestep time="562.00"/>
    <timestep time="563.00"/>
    <timestep time="564.00"/>
    <timestep time="565.00"/>
    <timestep time="566.00"/>
    <timestep time="567.00"/>
    <timestep time="568.00"/>
    <timestep time="569.00"/>
    <timestep time="570.00"/>
    <timestep time="571.00"/>
    <timestep time="572.00"/>
    <timestep time="573.00"/>
    <timestep time="574.00"/>
    <timestep time="575.00"/>
    <timestep time="576.00"/>
    <timestep time="577.00"/>
    <timestep time="578.00"/>
    <timestep time="579.00"/>
    <timestep time="580.00"/>
    <timestep time="581.00"/>
    <timestep time="582.00"/>
    <timestep time="583.00"/>
    <timestep time="584.00"/>
    <timestep time="585.00"/>
    <timestep time="586.00"/>
    <timestep time="587.00"/>
    <timestep time="588.00"/>
    <timestep time="589.00"/>
    <timestep time="590.00"/>
    <timestep time="591.00"/>
    <timestep time="592.00"/>
    <timestep time="593.00"/>
    <timestep time="594.00"/>
    <timestep time="595.00"/>
    <timestep time="596.00"/>
    <timestep time="597.00"/>
    <timestep time="598.00"/>
    <timestep time="599.00"/>
    <timestep time="600.00">
        <vehicle id="ev_trip" x="23953.41" y="8413.97" angle="298.06" type="ev" speed="0.00" pos="5.10" lane="17364035#0_0" slope="0.00"/>
    </timestep>
    <timestep time="601.00">
        <vehicle id="ev_trip" x="23950.55" y="8415.50" angle="298.06" type="ev" speed="3.24" pos="8.34" lane="17364035#0_0" slope="0.00"/>
    </timestep>
    <timestep time="602.00">
        <vehicle id="ev_trip" x="23944.42" y="8418.74" angle="297.86" type="ev" speed="6.94" pos="15.28" lane="17364035#0_0" slope="0.00"/>
    </timestep>
    <timestep time="603.00">
        <vehicle id="ev_trip" x="23935.29" y="8423.56" angle="297.86" type="ev" speed="10.32" pos="25.60" lane="17364035#0_0" slope="0.00"/>
    </timestep>
    <timestep time="604.00">
        <vehicle id="ev_trip" x="23924.04" y="8432.31" angle="308.07" type="ev" speed="14.26" pos="39.86" lane="17364035#0_0" slope="0.00"/>
    </timestep>
    <timestep time="605.00">
        <vehicle id="ev_trip" x="23909.77" y="8443.48" angle="308.04" type="ev" speed="18.12" pos="57.97" lane="17364035#0_0" slope="0.00"/>
    </timestep>
    <timestep time="606.00">
        <vehicle id="ev_trip" x="23894.19" y="8455.14" angle="304.64" type="ev" speed="19.47" pos="77.44" lane="17364035#0_0" slope="0.00"/>
    </timestep>
    <timestep time="607.00">
        <vehicle id="ev_trip" x="23876.59" y="8463.61" angle="305.26" type="ev" speed="19.65" pos="11.24" lane="17364094_0" slope="0.00"/>
    </timestep>
    <timestep time="608.00">
        <vehicle id="ev_trip" x="23862.51" y="8473.56" angle="305.26" type="ev" speed="17.21" pos="28.45" lane="17364094_0" slope="0.00"/>
    </timestep>
    <timestep time="609.00">
        <vehicle id="ev_trip" x="23851.25" y="8481.48" angle="305.06" type="ev" speed="13.74" pos="42.19" lane="17364094_0" slope="0.00"/>
    </timestep>
    <timestep time="610.00">
        <vehicle id="ev_trip" x="23841.03" y="8489.38" angle="309.14" type="ev" speed="12.90" pos="55.09" lane="17364094_0" slope="0.00"/>
    </timestep>
    <timestep time="611.00">
        <vehicle id="ev_trip" x="23838.44" y="8492.29" angle="316.35" type="ev" speed="3.90" pos="3.34" lane=":842426078_0_0" slope="0.00"/>
    </timestep>
    <timestep time="612.00">
        <vehicle id="ev_trip" x="23837.98" y="8499.34" angle="3.79" type="ev" speed="7.37" pos="10.70" lane=":842426078_0_0" slope="0.00"/>
    </timestep>
    <timestep time="613.00">
        <vehicle id="ev_trip" x="23843.69" y="8508.43" angle="36.69" type="ev" speed="10.80" pos="4.62" lane="831851224#0_0" slope="0.00"/>
    </timestep>
    <timestep time="614.00">
        <vehicle id="ev_trip" x="23851.30" y="8518.77" angle="35.47" type="ev" speed="12.85" pos="17.47" lane="831851224#0_0" slope="0.00"/>
    </timestep>
    <timestep time="615.00">
        <vehicle id="ev_trip" x="23858.08" y="8530.66" angle="26.51" type="ev" speed="13.72" pos="31.19" lane="831851224#0_0" slope="0.00"/>
    </timestep>
    <timestep time="616.00">
        <vehicle id="ev_trip" x="23863.30" y="8543.71" angle="21.54" type="ev" speed="14.06" pos="45.24" lane="831851224#0_0" slope="0.00"/>
    </timestep>
    <timestep time="617.00">
        <vehicle id="ev_trip" x="23868.40" y="8556.98" angle="21.05" type="ev" speed="14.22" pos="59.46" lane="831851224#0_0" slope="0.00"/>
    </timestep>
    <timestep time="618.00">
        <vehicle id="ev_trip" x="23873.62" y="8570.12" angle="22.75" type="ev" speed="14.14" pos="73.60" lane="831851224#0_0" slope="0.00"/>
    </timestep>
    <timestep time="619.00">
        <vehicle id="ev_trip" x="23879.20" y="8582.77" angle="25.64" type="ev" speed="13.85" pos="87.45" lane="831851224#0_0" slope="0.00"/>
    </timestep>
    <timestep time="620.00">
        <vehicle id="ev_trip" x="23884.11" y="8590.71" angle="31.37" type="ev" speed="9.35" pos="0.58" lane=":cluster_139557524_249478297_6_0" slope="0.00"/>
    </timestep>
    <timestep time="621.00">
        <vehicle id="ev_trip" x="23882.73" y="8598.45" angle="323.54" type="ev" speed="9.33" pos="9.91" lane=":cluster_139557524_249478297_6_0" slope="0.00"/>
    </timestep>
    <timestep time="622.00">
        <vehicle id="ev_trip" x="23873.98" y="8601.54" angle="288.87" type="ev" speed="9.28" pos="8.77" lane="-936407794_0" slope="0.00"/>
    </timestep>
    <timestep time="623.00">
        <vehicle id="ev_trip" x="23871.10" y="8604.68" angle="318.84" type="ev" speed="5.20" pos="0.50" lane=":249478369_10_0" slope="0.00"/>
    </timestep>
    <timestep time="624.00">
        <vehicle id="ev_trip" x="23875.66" y="8604.35" angle="93.15" type="ev" speed="4.89" pos="3.05" lane="936407794_0" slope="0.00"/>
    </timestep>
    <timestep time="625.00">
        <vehicle id="ev_trip" x="23883.75" y="8601.50" angle="109.80" type="ev" speed="8.58" pos="0.49" lane=":cluster_139557524_249478297_5_0" slope="0.00"/>
    </timestep>
    <timestep time="626.00">
        <vehicle id="ev_trip" x="23888.57" y="8592.75" angle="178.07" type="ev" speed="11.29" pos="11.78" lane=":cluster_139557524_249478297_5_0" slope="0.00"/>
    </timestep>
    <timestep time="627.00">
        <vehicle id="ev_trip" x="23882.88" y="8582.60" angle="212.09" type="ev" speed="11.66" pos="6.95" lane="-831851224#2_0" slope="0.00"/>
    </timestep>
    <timestep time="628.00">
        <vehicle id="ev_trip" x="23876.42" y="8568.53" angle="202.80" type="ev" speed="15.52" pos="22.47" lane="-831851224#2_0" slope="0.00"/>
    </timestep>
    <timestep time="629.00">
        <vehicle id="ev_trip" x="23869.39" y="8550.64" angle="201.06" type="ev" speed="19.23" pos="41.69" lane="-831851224#2_0" slope="0.00"/>
    </timestep>
    <timestep time="630.00">
        <vehicle id="ev_trip" x="23862.15" y="8532.21" angle="201.90" type="ev" speed="19.80" pos="61.49" lane="-831851224#2_0" slope="0.00"/>
    </timestep>
    <timestep time="631.00">
        <vehicle id="ev_trip" x="23852.46" y="8514.88" angle="215.47" type="ev" speed="19.93" pos="81.43" lane="-831851224#2_0" slope="0.00"/>
    </timestep>
    <timestep time="632.00">
        <vehicle id="ev_trip" x="23841.09" y="8499.83" angle="218.06" type="ev" speed="18.86" pos="3.80" lane=":842426078_3_0" slope="0.00"/>
    </timestep>
    <timestep time="633.00">
        <vehicle id="ev_trip" x="23829.81" y="8485.96" angle="221.11" type="ev" speed="17.89" pos="4.05" lane="-23035876#1_0" slope="0.00"/>
    </timestep>
    <timestep time="634.00">
        <vehicle id="ev_trip" x="23818.29" y="8473.88" angle="228.06" type="ev" speed="16.74" pos="20.79" lane="-23035876#1_0" slope="0.00"/>
    </timestep>
    <timestep time="635.00">
        <vehicle id="ev_trip" x="23804.86" y="8464.27" angle="234.77" type="ev" speed="16.51" pos="37.30" lane="-23035876#1_0" slope="0.00"/>
    </timestep>
    <timestep time="636.00">
        <vehicle id="ev_trip" x="23792.20" y="8457.86" angle="249.02" type="ev" speed="14.26" pos="1.02" lane=":29869668_1_0" slope="0.00"/>
    </timestep>
    <timestep time="637.00">
        <vehicle id="ev_trip" x="23779.58" y="8462.09" angle="308.31" type="ev" speed="14.09" pos="0.55" lane="-158732035#5_0" slope="0.00"/>
    </timestep>
    <timestep time="638.00">
        <vehicle id="ev_trip" x="23765.68" y="8472.75" angle="306.37" type="ev" speed="17.53" pos="18.08" lane="-158732035#5_0" slope="0.00"/>
    </timestep>
    <timestep time="639.00">
        <vehicle id="ev_trip" x="23749.65" y="8484.49" angle="306.20" type="ev" speed="19.87" pos="37.95" lane="-158732035#5_0" slope="0.00"/>
    </timestep>
    <timestep time="640.00">
        <vehicle id="ev_trip" x="23735.06" y="8497.31" angle="319.08" type="ev" speed="19.50" pos="57.45" lane="-158732035#5_0" slope="0.00"/>
    </timestep>
    <timestep time="641.00">
        <vehicle id="ev_trip" x="23723.66" y="8513.63" angle="328.52" type="ev" speed="19.96" pos="77.41" lane="-158732035#5_0" slope="0.00"/>
    </timestep>
    <timestep time="642.00">
        <vehicle id="ev_trip" x="23714.24" y="8530.76" angle="335.81" type="ev" speed="19.58" pos="96.99" lane="-158732035#5_0" slope="0.00"/>
    </timestep>
    <timestep time="643.00">
        <vehicle id="ev_trip" x="23705.92" y="8549.04" angle="334.71" type="ev" speed="20.09" pos="2.30" lane=":249477762_1_0" slope="0.00"/>
    </timestep>
    <timestep time="644.00">
        <vehicle id="ev_trip" x="23696.98" y="8566.20" angle="330.89" type="ev" speed="19.34" pos="7.10" lane="-158732035#1_0" slope="0.00"/>
    </timestep>
    <timestep time="645.00">
        <vehicle id="ev_trip" x="23687.79" y="8583.52" angle="327.66" type="ev" speed="19.67" pos="26.77" lane="-158732035#1_0" slope="0.00"/>
    </timestep>
    <timestep time="646.00">
        <vehicle id="ev_trip" x="23676.07" y="8598.93" angle="321.61" type="ev" speed="19.37" pos="46.14" lane="-158732035#1_0" slope="0.00"/>
    </timestep>
    <timestep time="647.00">
        <vehicle id="ev_trip" x="23662.20" y="8613.28" angle="315.71" type="ev" speed="19.98" pos="66.12" lane="-158732035#1_0" slope="0.00"/>
    </timestep>
    <timestep time="648.00">
        <vehicle id="ev_trip" x="23648.80" y="8627.65" angle="317.01" type="ev" speed="19.65" pos="85.77" lane="-158732035#1_0" slope="0.00"/>
    </timestep>
    <timestep time="649.00">
        <vehicle id="ev_trip" x="23635.55" y="8642.25" angle="319.51" type="ev" speed="19.72" pos="105.48" lane="-158732035#1_0" slope="0.00"/>
    </timestep>
    <timestep time="650.00">
        <vehicle id="ev_trip" x="23622.55" y="8657.48" angle="319.51" type="ev" speed="20.02" pos="125.51" lane="-158732035#1_0" slope="0.00"/>
    </timestep>
    <timestep time="651.00">
        <vehicle id="ev_trip" x="23610.14" y="8672.74" angle="321.93" type="ev" speed="19.68" pos="145.18" lane="-158732035#1_0" slope="0.00"/>
    </timestep>
    <timestep time="652.00">
        <vehicle id="ev_trip" x="23597.52" y="8688.14" angle="320.24" type="ev" speed="19.91" pos="6.50" lane="-23172897#1_0" slope="0.00"/>
    </timestep>
    <timestep time="653.00">
        <vehicle id="ev_trip" x="23584.67" y="8703.60" angle="320.24" type="ev" speed="20.11" pos="26.61" lane="-23172897#1_0" slope="0.00"/>
    </timestep>
    <timestep time="654.00">
        <vehicle id="ev_trip" x="23570.96" y="8718.06" angle="315.55" type="ev" speed="19.93" pos="1.99" lane=":246064175_1_0" slope="0.00"/>
    </timestep>
    <timestep time="655.00">
        <vehicle id="ev_trip" x="23554.75" y="8729.86" angle="301.79" type="ev" speed="20.11" pos="7.29" lane="-23172897#0_0" slope="0.00"/>
    </timestep>
    <timestep time="656.00">